# vtk DataFile Version 2.0
3dElas.vtk
ASCII
DATASET UNSTRUCTURED_GRID

POINTS 1276 float
-0.500000 -0.364954 -0.676337
-0.151079 -0.486945 -0.641740
-0.843400 -0.268492 -0.644789
-1.000000 0.281092 -0.682490
-0.500000 0.408902 -1.015412
-0.179863 -0.077593 -1.008427
-0.854337 -0.424403 -1.009043
-1.000000 -0.314941 -1.016654
-0.348157 -0.401305 -0.666055
-0.513943 -0.373303 -0.653138
-0.933607 -0.017851 -0.672509
-0.749604 -0.046862 -0.689600
-0.500000 0.031540 -0.834300
-0.061412 -0.277209 -0.818755
-0.809330 -0.348375 -0.820125
-1.000000 -0.024292 -0.837065
-0.362624 0.122007 -1.013336
-0.533083 -0.252455 -1.010325
-0.939422 -0.348207 -1.014639
-0.750000 0.053534 -1.018270
-0.620614 -0.160399 -0.837053
-0.649030 -0.207894 -0.682350
-0.658452 -0.113083 -1.016043
-0.749743 0.004421 -0.838470
-0.459567 -0.313631 -0.822458
-0.303092 -0.133180 -0.829680
-0.915492 -0.187112 -0.832580
0.381243 -0.630043 -0.603965
-0.616784 -0.646588 -0.568273
0.320394 -0.302407 -1.000801
-0.633736 -0.638530 -0.993594
0.089903 -0.571536 -0.617593
-0.166208 -0.632728 -0.595092
-0.735892 -0.475802 -0.606334
0.570800 -0.462175 -0.801782
-0.563973 -0.642459 -0.785744
0.046313 -0.217368 -1.003552
-0.201411 -0.473554 -0.998448
-0.750672 -0.527112 -1.001279
-0.273860 -0.446910 -0.808151
-0.353728 -0.519406 -0.620703
-0.379710 -0.374420 -1.003567
-0.063974 -0.553181 -0.796809
0.225695 -0.390074 -0.807905
-0.689848 -0.502091 -0.802846
0.537853 -0.814570 -0.595439
-0.359712 -0.893184 -0.534664
0.472268 -0.658833 -0.999477
-0.375645 -0.835596 -0.986809
0.508736 -0.715697 -0.594882
0.031038 -0.854110 -0.567262
-0.490498 -0.785135 -0.542120
0.733983 -0.734430 -0.797986
-0.310076 -0.863678 -0.770643
0.440478 -0.487990 -0.999186
-0.003151 -0.744532 -0.993185
-0.507794 -0.744655 -0.988314
0.056685 -0.681848 -0.787079
-0.051790 -0.748477 -0.573027
-0.088561 -0.615424 -0.994235
-0.436615 -0.764395 -0.773993
0.717992 -0.598831 -0.797573
0.131694 -0.798952 -0.784468
1.148476 -0.630043 -0.596035
1.462978 -0.742786 -0.621479
1.035585 -0.302407 -0.999199
1.327816 -0.573226 -1.003908
0.735547 -0.650716 -0.600000
1.344357 -0.679640 -0.608042
0.950669 -0.781858 -0.613139
1.500156 -0.462175 -0.798218
1.878514 -0.656083 -0.808822
0.652006 -0.331135 -1.000000
1.217431 -0.443723 -1.001034
0.855953 -0.611714 -1.002358
1.167278 -0.591490 -0.800875
0.880647 -0.712018 -0.603798
0.787439 -0.476663 -1.000536
1.739660 -0.557139 -0.801981
0.995794 -0.486975 -0.800000
1.239081 -0.694298 -0.805075
1.682593 -0.486945 -0.558260
2.426385 -0.615841 -0.604446
1.537434 -0.077593 -0.991573
2.206411 -0.446853 -1.000441
1.537386 -0.571536 -0.582407
2.129570 -0.543984 -0.576744
1.930666 -0.685852 -0.613112
2.134799 -0.277209 -0.781245
3.111614 -0.533562 -0.801747
1.396156 -0.217368 -0.996448
1.948909 -0.275727 -0.995392
1.751954 -0.506365 -1.002783
2.295809 -0.498052 -0.798009
1.784995 -0.624935 -0.593907
1.620335 -0.369595 -0.999221
2.722439 -0.413716 -0.790537
1.977353 -0.390074 -0.792095
2.476059 -0.598829 -0.806339
5.070228 -0.268492 -0.555211
3.962742 -0.646588 -0.631727
4.601099 -0.424403 -0.990957
3.599674 -0.638530 -1.006406
2.961459 -0.374360 -0.557884
5.023506 -0.475802 -0.593666
3.167002 -0.621054 -0.627036
6.531674 -0.348375 -0.779875
5.093781 -0.642459 -0.814256
2.716799 -0.252455 -0.989675
4.551317 -0.527112 -0.998721
2.865455 -0.547252 -1.003341
4.270302 -0.449908 -0.796757
3.324524 -0.498021 -0.593120
3.030604 -0.407344 -0.996477
6.494486 -0.502091 -0.797154
3.774263 -0.312448 -0.779952
4.071301 -0.578982 -0.810923
1.536596 -0.893184 -0.665336
1.418864 -0.835596 -1.013191
2.634872 -0.785135 -0.657880
1.601818 -0.815943 -0.642640
1.903359 -0.863678 -0.829357
2.408620 -0.744655 -1.011686
1.461637 -0.709284 -1.008496
2.988334 -0.678007 -0.816688
2.342235 -0.728521 -0.636229
2.133211 -0.630888 -1.007150
2.028643 -0.763309 -0.819913
3.339702 -0.764395 -0.826007
-1.035985 0.914394 -0.644789
-0.804919 -0.091874 -0.664090
-1.025049 -0.299279 -1.009043
-0.788331 0.662644 -1.012481
-1.036008 0.615266 -0.672509
-0.927528 0.364190 -0.650789
-0.669433 -0.260736 -0.677379
-1.070055 0.292555 -0.820125
-0.853602 0.295169 -0.827558
-1.030193 -0.321149 -1.014639
-0.906094 0.239133 -1.011240
-0.661335 0.576134 -1.015524
-0.876027 0.153585 -0.836285
-0.849019 0.149198 -0.680750
-0.844079 0.156976 -1.016422
-0.959300 0.297769 -0.818969
-1.054124 0.135483 -0.832580
-0.702210 0.165536 -0.830783
-0.915305 0.462998 -0.568273
-0.781375 -0.693691 -0.620213
-0.898353 0.844228 -0.993594
-0.765566 1.719386 -1.003796
-0.996159 0.986039 -0.606334
-0.852786 -0.302424 -0.587855
-0.795984 -0.318851 -0.646159
-0.968116 0.658325 -0.785744
-0.873904 0.543071 -0.802072
-0.981379 -0.044568 -1.001279
-0.835163 1.495602 -0.998896
-0.779474 1.105978 -1.008333
-0.957169 0.448507 -0.813334
-0.890509 0.193018 -0.628445
-0.881578 0.683281 -1.005181
-0.926270 0.615894 -0.782650
-1.042202 0.457996 -0.802846
-0.867886 0.413317 -0.817251
-0.657938 -0.831984 -0.641740
-0.629154 1.555347 -1.008427
-0.726502 -0.799553 -0.634274
-0.602899 -0.469158 -0.666055
-0.747605 0.391192 -0.818755
-0.704464 1.684258 -1.006682
-0.588433 0.853277 -1.013336
-0.776593 0.312908 -0.823310
-0.713778 -0.419848 -0.661248
-0.695883 1.011670 -1.011699
-0.647965 0.208406 -0.829680
-0.820482 0.469923 -0.804858
-0.270602 -11.203858 -0.569663
-0.020541 -11.203858 -0.630337
-0.839459 -2.204166 -0.596035
-0.690260 -2.204166 -0.603965
-0.259591 14.641233 -0.993875
0.001514 14.641233 -1.006125
-0.726568 3.477911 -0.999199
-0.629411 3.477911 -1.000801
-0.104061 -12.567041 -0.600000
-0.629773 -4.896887 -0.673945
-0.735547 -2.527216 -0.600000
-0.627175 -4.903302 -0.640909
-0.304906 2.038163 -0.786369
-0.089248 2.038163 -0.813631
-1.191139 0.707110 -0.798218
-0.879817 0.707110 -0.801782
-0.092242 16.200784 -1.000000
-0.574689 7.134743 -1.003429
-0.652006 3.891753 -1.000000
-0.547322 7.134743 -0.996571
-0.773863 1.298189 -0.810300
-0.570360 -5.600109 -0.666276
-0.508583 7.930342 -1.000000
-0.746891 1.216882 -0.792872
-0.957408 1.222696 -0.806843
-0.140879 2.172476 -0.800000
-0.995794 0.761615 -0.800000
0.367837 -1.017904 -0.630337
0.345782 -0.947726 -1.006125
0.805220 -0.970925 -0.654372
0.525731 -0.913132 -0.608829
0.436544 -0.981948 -0.813631
0.752612 -0.904699 -1.010977
0.474114 -0.806549 -1.002330
1.240558 -0.817183 -0.814730
0.979647 -0.873632 -0.633538
0.893220 -0.762808 -1.006450
0.682128 -0.857380 -0.804722
0.969108 -0.936993 -0.824431
-0.076694 -1.017904 -0.569663
-0.087706 -0.947726 -0.993875
0.104061 -1.033629 -0.600000
-0.224092 -0.970925 -0.545628
-0.042390 -0.981948 -0.786369
0.092242 -0.962321 -1.000000
-0.237485 -0.904699 -0.989023
0.173298 -0.904817 -0.789665
0.095126 -0.950712 -0.578647
0.068344 -0.861056 -0.995578
-0.182367 -0.936993 -0.775569
0.140879 -0.997094 -0.800000
0.500000 -0.364954 -0.523663
1.000000 0.281092 -0.517510
0.500000 0.408902 -0.984588
1.000000 -0.314941 -0.983346
1.328917 -0.401305 -0.533945
0.746880 -0.054529 -0.502833
3.615438 -0.017851 -0.527491
0.500000 0.031540 -0.765700
1.000000 -0.024292 -0.762935
1.231993 0.122007 -0.986664
0.750000 0.053534 -0.981730
3.316662 -0.348207 -0.985361
2.756255 -0.164913 -0.769146
2.226063 -0.211273 -0.530082
2.060768 -0.113083 -0.983957
4.546195 -0.187112 -0.767420
1.630859 -0.133180 -0.770320
0.750237 -0.013196 -0.751528
-0.873576 -0.831984 -0.558260
-3.190843 0.914394 -0.555211
-0.728417 1.555347 -0.991573
-2.721714 -0.299279 -0.990957
-0.377861 -0.469158 -0.533945
-1.616484 -0.066750 -0.530398
-1.645823 0.615266 -0.527491
-1.325782 0.391192 -0.781245
-4.652289 0.292555 -0.779875
-0.280936 0.853277 -0.986664
-1.372598 0.759294 -0.989675
-1.347047 -0.321149 -0.985361
-1.295603 0.168971 -0.764906
-0.771560 0.045916 -0.516237
-0.600432 0.300562 -0.983957
-2.429945 0.351224 -0.758940
-0.679802 0.208406 -0.770320
-2.576580 0.135483 -0.767420
-1.574797 -1.109901 -0.597864
-2.430653 0.462998 -0.631727
-1.329905 2.336193 -0.999791
-2.067585 0.844228 -1.006406
-1.282540 -0.962809 -0.577379
-1.998988 -0.487301 -0.598683
-3.291455 0.986039 -0.593666
-2.298901 0.652346 -0.788988
-3.561693 0.658325 -0.814256
-1.085089 1.949166 -0.994969
-1.687699 1.794682 -1.003012
-2.819266 -0.044568 -0.998721
-3.005703 0.509463 -0.785237
-2.057212 -0.174629 -0.571704
-1.748631 1.160844 -0.996276
-4.762435 0.457996 -0.797154
-1.878211 0.512218 -0.776547
-2.945273 0.673627 -0.788841
-1.159722 -2.454079 -0.626041
-0.979159 4.068000 -1.003695
-0.949601 -1.487145 -0.582407
-1.033982 -2.399792 -0.587218
-1.377311 -1.728034 -0.611992
-1.693252 0.878091 -0.791143
-0.808370 2.523955 -0.996448
-0.852479 3.894132 -1.000693
-1.155428 3.129493 -1.001997
-1.716812 0.661071 -0.770348
-1.198493 -1.639172 -0.587230
-1.000338 2.875101 -0.998637
-1.423766 0.796023 -0.768946
-1.389568 0.567987 -0.792095
-2.000944 0.759101 -0.791768
-0.536596 -4.038180 -0.665336
-0.418864 6.360796 -1.013191
-0.121180 -7.834918 -0.654372
-0.944074 -3.242994 -0.667383
-0.903359 1.289851 -0.829357
-0.068572 10.770942 -1.010977
-0.814999 5.161705 -1.008722
-1.147900 1.183330 -0.801272
-0.723440 -4.348199 -0.668484
-0.647219 6.499973 -1.006485
-1.477229 1.088319 -0.809206
-0.285067 1.698002 -0.824431
-1.349297 -1.126062 -0.657880
-1.123044 2.885998 -1.011686
-2.162530 0.865618 -0.797096
-1.449341 -1.616837 -0.637985
-1.230920 3.220057 -1.006842
-2.054127 0.929562 -0.826007
-0.705138 -2.195016 -0.588943
-0.640288 -4.038180 -0.534664
-0.688434 3.721521 -0.997155
-0.624355 6.360796 -0.986809
-0.737655 -1.335699 -0.600655
-0.795078 -1.126062 -0.542120
-0.728158 -3.053634 -0.584191
-0.838198 0.833586 -0.775325
-0.689924 1.289851 -0.770643
-0.730371 2.590443 -1.000124
-0.777781 2.885998 -0.988314
-0.667047 4.926139 -0.991616
-0.866787 0.816217 -0.770459
-0.789208 -1.388274 -0.575844
-0.760534 2.901811 -0.994191
-0.782283 1.057950 -0.772946
-0.862397 0.679351 -0.789495
-0.848960 0.929562 -0.773993
-0.459949 -7.834918 -0.545628
-0.647868 -2.287827 -0.579798
-0.446555 10.770942 -0.989023
-0.652899 3.737461 -0.999649
-0.739982 1.163491 -0.775328
[...]
POINT_DATA 1276
VECTORS displacement float
-0.000000 -0.364954 -0.076337
0.253429 -0.193052 -0.041740
0.096293 0.073528 -0.044789
0.000000 0.281092 -0.082490
-0.000000 0.408902 -0.015412
0.224646 0.216300 -0.008427
0.085356 -0.082383 -0.009043
0.000000 -0.314941 -0.016654
0.127371 -0.246797 -0.066055
0.158158 -0.055346 -0.053138
0.051200 0.155797 -0.072509
0.000396 -0.046862 -0.089600
-0.000000 0.031540 -0.034300
0.343096 0.016684 -0.018755
0.130362 -0.006354 -0.020125
0.000000 -0.024292 -0.037065
0.112905 0.276516 -0.013336
0.139018 0.065501 -0.010325
0.045385 -0.174558 -0.014639
0.000000 0.053534 -0.018270
0.109554 0.003679 -0.037053
0.081138 -0.043816 -0.082350
0.071716 0.050995 -0.016043
0.000257 0.004421 -0.038470
0.212534 0.004325 -0.022458
0.172436 0.021328 -0.029680
0.069316 -0.013464 -0.032580
0.535751 -0.154515 -0.003965
0.149261 -0.003800 0.031727
0.474903 0.173121 -0.000801
0.132308 0.004258 0.006406
0.383795 -0.167027 -0.017593
0.294069 -0.073570 0.004908
0.130134 0.024198 -0.006334
0.725308 0.013353 -0.001782
0.202072 0.000328 0.014256
0.340206 0.187140 -0.003552
0.258865 0.085604 0.001552
0.115354 -0.027112 -0.001279
0.306099 0.005344 -0.008151
0.226231 -0.067152 -0.020703
0.200249 0.077834 -0.003567
0.396302 0.005977 0.003191
0.519588 0.014435 -0.007905
0.176177 -0.002091 -0.002846
0.561425 -0.073818 0.004561
0.140288 -0.027159 0.065336
0.495841 0.081919 0.000523
0.124355 0.030429 0.013191
0.597776 -0.107556 0.005118
0.292825 -0.050722 0.032738
0.152290 -0.019090 0.057880
0.757556 0.006322 0.002014
0.189924 0.002347 0.029357
0.529518 0.120150 0.000814
0.258636 0.058857 0.006815
0.134994 0.021389 0.011686
0.422599 0.005244 0.012921
0.314124 -0.061385 0.026973
0.277353 0.071668 0.005765
0.206172 0.001650 0.026007
0.807032 0.009309 0.002427
0.393481 0.004437 0.015532
0.993967 -0.154515 0.003965
1.183014 -0.081394 -0.021479
0.881077 0.173121 0.000801
1.047853 0.088166 -0.003908
0.735547 -0.150716 -0.000000
1.127121 -0.111180 -0.008042
0.822473 -0.080786 -0.013139
1.345648 0.013353 0.001782
1.598550 0.005309 -0.008822
0.652006 0.168865 -0.000000
1.000195 0.124737 -0.001034
0.727757 0.089358 -0.002358
1.103180 0.009046 -0.000875
0.816549 -0.111482 -0.003798
0.723341 0.123873 -0.000536
1.522424 0.011321 -0.001981
0.995794 0.013025 -0.000000
1.110886 0.006774 -0.005075
1.278085 -0.193052 0.041740
1.941864 -0.082495 -0.004446
1.132925 0.216300 0.008427
1.721889 0.086493 -0.000441
1.243494 -0.167027 0.017593
1.685055 -0.130365 0.023256
1.548423 -0.088483 -0.013112
1.730291 0.016684 0.018755
2.627092 -0.000216 -0.001747
1.102263 0.187140 0.003552
1.504394 0.137892 0.004608
1.369712 0.091004 -0.002783
1.957742 0.002886 0.001991
1.446927 -0.123996 0.006093
1.282267 0.131344 0.000779
2.277924 -0.000096 0.009463
1.683461 0.014435 0.007905
2.093816 -0.001460 -0.006339
4.130535 0.073528 0.044789
3.196697 -0.003800 -0.031727
3.661407 -0.082383 0.009043
2.833630 0.004258 -0.006406
2.289358 -0.056404 0.042116
4.157481 0.024198 0.006334
2.541719 -0.032988 -0.027036
5.591981 -0.006354 0.020125
4.327737 0.000328 -0.014256
2.044699 0.065501 0.010325
3.685292 -0.027112 0.001279
2.240172 0.040815 -0.003341
3.615032 0.006901 0.003243
2.669254 -0.041211 0.006880
2.375334 0.049465 0.003523
5.628461 -0.002091 0.002846
3.102162 0.005508 0.020048
3.446018 0.009085 -0.010923
1.036596 -0.027159 -0.065336
0.918864 0.030429 -0.013191
1.992085 -0.019090 -0.057880
1.211836 -0.052234 -0.042640
1.403359 0.002347 -0.029357
1.765832 0.021389 -0.011686
1.071655 0.054424 -0.008496
2.475819 0.003699 -0.016688
1.829720 -0.046814 -0.036229
1.620696 0.050819 -0.007150
1.638661 0.000399 -0.019913
2.696914 0.001650 -0.026007
-0.096293 0.572374 -0.044789
-0.139720 -0.356250 -0.064090
-0.085356 -0.641299 -0.009043
-0.123133 0.398268 -0.012481
-0.051200 0.441618 -0.072509
-0.125082 0.060992 -0.050789
-0.086834 -0.392924 -0.077379
-0.130362 -0.049465 -0.020125
-0.188404 0.030793 -0.027558
-0.045385 -0.494797 -0.014639
-0.103648 -0.064065 -0.011240
-0.078736 0.443946 -0.015524
-0.092324 0.000667 -0.036285
-0.065315 -0.003720 -0.080750
-0.060376 0.004058 -0.016422
-0.156854 -0.005429 -0.018969
-0.069316 -0.038165 -0.032580
-0.119611 0.033349 -0.030783
-0.149261 -0.179790 0.031727
-0.224691 -1.139582 -0.020213
-0.132308 0.201440 0.006406
-0.208882 1.273495 -0.003796
-0.130134 0.486039 -0.006334
-0.191422 -0.846763 0.012145
-0.185043 -0.673985 -0.046159
-0.202072 0.015538 0.014256
-0.317220 0.097180 -0.002072
-0.115354 -0.544568 -0.001279
-0.173799 0.951263 0.001104
-0.168533 0.750845 -0.008333
-0.218686 0.020940 -0.013334
-0.152026 -0.234549 -0.028445
-0.143095 0.255714 -0.005181
-0.264906 0.071554 0.017350
-0.176177 -0.042004 -0.002846
-0.256945 0.058184 -0.017251
-0.253429 -1.125877 -0.041740
-0.224646 1.261455 -0.008427
-0.245905 -1.169444 -0.034274
-0.127371 -0.623666 -0.066055
-0.343096 0.097299 -0.018755
-0.223868 1.314366 -0.006682
-0.112905 0.698768 -0.013336
-0.233358 0.058087 -0.023310
-0.170543 -0.674668 -0.061248
-0.152649 0.756849 -0.011699
-0.172436 0.053898 -0.029680
-0.339886 0.100031 -0.004858
-0.096954 -12.188665 0.030337
-0.194189 -12.188665 -0.030337
-0.993967 -2.679694 0.003965
-0.535751 -2.679694 -0.003965
-0.085943 13.656425 0.006125
-0.172134 13.656425 -0.006125
-0.881077 3.002383 0.000801
-0.474903 3.002383 -0.000801
-0.104061 -13.567041 0.000000
-0.793852 -5.627055 -0.073945
-0.735547 -3.027216 -0.000000
-0.463096 -5.633470 -0.040909
-0.131258 1.053356 0.013631
-0.262896 1.053356 -0.013631
-1.345648 0.231582 0.001782
-0.725308 0.231582 -0.001782
-0.092242 15.200784 0.000000
-0.738768 6.404575 -0.003429
-0.652006 3.391753 0.000000
-0.383243 6.404575 0.003429
-0.773863 0.548189 -0.010300
-0.570360 -6.350109 -0.066276
-0.508583 7.180342 0.000000
-0.582812 0.486714 0.007128
-1.121487 0.492528 -0.006843
-0.140879 1.172476 0.000000
-0.995794 0.261615 0.000000
0.194189 -0.033096 -0.030337
0.172134 0.037082 -0.006125
0.463200 -0.031233 -0.054372
0.450694 -0.050352 -0.008829
0.262896 0.002860 -0.013631
0.410592 0.034994 -0.010977
0.399076 0.056230 -0.002330
1.005450 0.003199 -0.014730
0.744539 -0.053250 -0.033538
0.658112 0.057574 -0.006450
0.607091 0.005399 -0.004722
0.627088 0.002699 -0.024431
0.096954 -0.033096 0.030337
0.085943 0.037082 0.006125
0.104061 -0.033629 0.000000
0.117929 -0.031233 0.054372
0.131258 0.002860 0.013631
0.092242 0.037679 -0.000000
0.104535 0.034994 0.010977
0.306789 0.004015 0.010335
0.228617 -0.041879 0.021353
0.201835 0.047776 0.004422
0.159653 0.002699 0.024431
0.140879 0.002906 0.000000
-0.000000 -0.364954 0.076337
-0.000000 0.281092 0.082490
-0.000000 0.408902 0.015412
-0.000000 -0.314941 0.016654
0.853389 -0.246797 0.066055
-0.003120 -0.054529 0.097167
2.630631 0.155797 0.072509
-0.000000 0.031540 0.034300
-0.000000 -0.024292 0.037065
0.756464 0.276516 0.013336
-0.000000 0.053534 0.018270
2.331855 -0.174558 0.014639
2.026087 -0.000835 0.030854
1.495895 -0.047194 0.069918
1.330600 0.050995 0.016043
3.561388 -0.013464 0.032580
1.155331 0.021328 0.029680
0.000237 -0.013196 0.048472
-1.278085 -1.125877 0.041740
-4.130535 0.572374 0.044789
-1.132925 1.261455 0.008427
-3.661407 -0.641299 0.009043
-0.853389 -0.623666 0.066055
-2.288585 -0.384707 0.069602
-2.630631 0.441618 0.072509
-1.730291 0.097299 0.018755
-5.591981 -0.049465 0.020125
-0.756464 0.698768 0.013336
-2.044699 0.441337 0.010325
-2.331855 -0.494797 0.014639
-2.025771 0.004893 0.035094
-1.501728 -0.118163 0.083763
-1.330600 0.136484 0.016043
-3.102046 0.033268 0.041060
-1.155331 0.053898 0.029680
-3.561388 -0.038165 0.032580
-2.095081 -1.629097 0.002136
-3.196697 -0.179790 -0.031727
-1.850188 1.816997 0.000209
-2.833630 0.201440 -0.006406
-1.744936 -1.369354 0.022621
-2.642152 -1.068293 0.001317
-4.157481 0.486039 0.006334
-2.819185 0.133150 0.011012
-4.327737 0.015538 -0.014256
-1.547485 1.542622 0.005031
-2.330863 1.213690 -0.003012
-3.685292 -0.544568 0.001279
-3.669914 0.056191 0.014763
-2.721423 -0.627901 0.028296
-2.412842 0.707571 0.003724
-5.628461 -0.042004 0.002846
-2.340607 0.105673 0.023453
-3.588438 0.092635 0.011159
-1.551320 -3.074329 -0.026041
-1.370756 3.447750 -0.003695
-1.243494 -1.891654 0.017593
-1.307035 -2.947681 0.012782
-1.833252 -2.297757 -0.011992
-2.084850 0.257841 0.008857
-1.102263 2.119447 0.003552
-1.125532 3.346243 -0.000693
-1.611369 2.559770 -0.001997
-2.091729 0.173955 0.029652
-1.573410 -2.126288 0.012770
-1.375254 2.387985 0.001363
-1.696819 0.248134 0.031054
-1.683461 0.163478 0.007905
-2.456885 0.189378 0.008232
-1.036596 -4.904206 -0.065336
-0.918864 5.494770 -0.013191
-0.463200 -8.774610 -0.054372
-1.389873 -3.986132 -0.067383
-1.403359 0.423826 -0.029357
-0.410592 9.831249 -0.010977
-1.260797 4.418567 -0.008722
-1.455437 0.439539 -0.001272
-1.030976 -5.091990 -0.068484
-0.954756 5.756182 -0.006485
-1.923028 0.345181 -0.009206
-0.627088 0.758310 -0.024431
-1.992085 -1.892106 -0.057880
-1.765832 2.119954 -0.011686
-2.711894 0.197734 0.002904
-1.998705 -2.284721 -0.037985
-1.780284 2.552173 -0.006842
-2.696914 0.163518 -0.026007
-0.301407 -2.790831 0.011057
-0.140288 -4.904206 0.065336
-0.284703 3.125707 0.002845
-0.124355 5.494770 0.013191
-0.257447 -1.856552 -0.000655
-0.152290 -1.892106 0.057880
-0.276293 -3.784554 0.015809
-0.434467 0.237771 0.024675
-0.189924 0.423826 0.029357
-0.250163 2.069590 -0.000124
-0.134994 2.119954 0.011686
-0.215182 4.195219 0.008384
-0.305289 0.172769 0.029541
-0.227711 -2.031722 0.024156
-0.199036 2.258363 0.005809
-0.330417 0.327030 0.027054
-0.382190 0.158498 0.010505
-0.206172 0.163518 0.026007
-0.117929 -8.774610 0.054372
-0.368749 -2.823499 0.020202
-0.104535 9.831249 0.010977
-0.373780 3.201790 0.000351
-0.429412 0.425809 0.024672
-0.359686 -4.982534 -0.007704
-0.281242 5.627326 0.006385
-0.575075 0.240257 0.034514
-0.159653 0.758310 0.024431
-0.383795 -1.891654 -0.017593
-0.340206 2.119447 -0.003552
-0.452987 0.167170 0.018260
-0.310768 -1.933510 -0.003739
-0.296388 2.168394 -0.002327
-0.519588 0.163478 -0.007905
0.000000 -0.387589 -0.378097
-0.239446 -0.205026 -0.206742
-0.090980 0.078089 -0.221840
-0.000000 0.298525 -0.408574
-0.120343 -0.262103 -0.327172
-0.149198 -0.047381 -0.262387
-0.048375 0.165460 -0.359140
-0.000257 -0.049435 -0.451494
-0.000000 -0.540072 -0.169890
0.010035 -0.285686 -0.092895
0.003813 0.108810 -0.099679
0.000000 0.415969 -0.183584
0.002608 -0.067799 -0.179585
-0.077371 -0.038735 -0.397080
-0.001193 -0.069906 -0.202697
0.007523 -0.087468 -0.117868
0.005044 -0.365218 -0.147008
0.002027 0.230554 -0.161372
-0.506190 -0.164098 -0.019638
-0.141025 -0.004036 0.157145
-0.362619 -0.177386 -0.087136
-0.273567 -0.068350 0.032089
-0.122953 0.025699 -0.031372
0.021215 -0.228656 -0.008824
0.005910 -0.005624 0.070610
0.009377 -0.104676 -0.043459
-0.214250 -0.059215 -0.096805
0.013588 -0.113944 0.014899
0.015198 -0.247172 -0.039153
0.005153 0.035810 -0.014096
-0.523592 -0.077972 0.017798
-0.132547 -0.028843 0.323612
-0.560393 -0.113229 0.024083
-0.267910 -0.050171 0.167410
-0.143887 -0.020274 0.286681
0.022098 -0.108436 0.011737
0.005555 -0.040190 0.145408
0.013836 -0.094734 0.063430
-0.289520 -0.058372 0.139099
0.006030 -0.028250 0.128814
0.023897 -0.159099 0.014186
0.012005 -0.077145 0.076130
-0.939123 -0.164098 0.019638
-1.114438 -0.087135 -0.096714
-0.694961 -0.160064 0.000000
-1.063430 -0.122160 -0.026484
-0.772121 -0.086093 -0.057786
0.039359 -0.228656 0.008824
0.046458 -0.115393 -0.039676
0.032407 -0.163549 -0.002181
-0.767855 -0.117374 -0.011715
0.044398 -0.163607 -0.008545
0.029126 -0.223035 -0.000000
0.032305 -0.117551 -0.023386
-1.207564 -0.205026 0.206742
-1.836012 -0.087360 -0.012846
-1.174882 -0.177386 0.087136
-1.594665 -0.129871 0.114459
-1.461819 -0.087314 -0.067232
0.050610 -0.285686 0.092895
0.077034 -0.112266 0.001884
0.057466 -0.172822 0.020710
-1.369073 -0.125705 0.022977
0.066962 -0.180167 0.058219
0.049240 -0.247172 0.039153
0.061294 -0.119228 -0.022899
-3.902626 0.078089 0.221840
-3.020314 -0.004036 -0.157145
-2.168805 -0.078849 0.245883
-3.928085 0.025699 0.031372
-2.404085 -0.056036 -0.091131
0.163562 0.108810 0.099679
0.126584 -0.005624 -0.070610
0.105246 -0.062942 0.043060
-2.524269 -0.065864 0.078955
0.164629 0.035810 0.014096
0.088730 -0.084301 0.118196
0.100663 -0.051349 -0.035826
-0.979400 -0.028843 -0.323612
-1.882168 -0.020274 -0.286681
-1.140505 -0.055523 -0.207395
0.041047 -0.040190 -0.145408
0.072335 -0.065568 -0.068905
-1.726938 -0.058142 -0.174905
0.047599 -0.071030 -0.087596
0.078883 -0.028250 -0.128814
0.090980 0.607873 -0.221840
0.129270 -0.386605 -0.303344
0.048375 0.469007 -0.359140
0.102289 0.055301 -0.281414
0.083011 -0.420981 -0.379759
-0.003813 0.847018 -0.099679
-0.008411 -0.525427 -0.138643
-0.001407 -0.003233 -0.182366
0.066605 -0.009439 -0.405027
-0.017932 0.093184 -0.124378
-0.002027 0.653521 -0.161372
-0.002068 -0.581707 -0.171413
0.141025 -0.190941 0.157145
0.232056 -1.217956 -0.086257
0.122953 0.516184 -0.031372
0.189057 -0.909974 0.023346
0.183154 -0.723471 -0.198873
-0.005910 -0.266059 0.070610
0.000816 -1.687627 -0.040470
0.002261 -0.342178 -0.057525
0.160182 -0.259261 -0.124378
-0.005381 -1.252269 0.013346
-0.005153 0.719258 -0.014096
-0.003725 -0.996715 -0.092509
0.239446 -1.195705 -0.206742
0.241358 -1.249835 -0.161356
0.120343 -0.662347 -0.327172
-0.010035 -1.666111 -0.092895
-0.006016 -0.997631 -0.130129
0.162651 -0.724018 -0.285047
-0.005044 -0.922923 -0.147008
-0.004587 -1.730314 -0.073714
0.091605 -12.944619 0.150261
0.183474 -12.944619 -0.150261
0.939123 -2.845891 0.019638
0.506190 -2.845891 -0.019638
0.098319 -14.408482 0.000000
0.823445 -5.984804 -0.000596
0.694961 -3.214967 -0.000000
0.379901 -5.990385 0.166843
-0.003839 -18.037205 0.067517
-0.007690 -18.037205 -0.067517
-0.039359 -3.965503 0.008824
-0.021215 -3.965503 -0.008824
-0.022478 -9.436753 0.014904
0.548439 -6.742558 0.105036
-0.065976 -8.378267 0.046018
0.016078 -8.377029 -0.031382
-0.004121 -20.076973 0.000000
-0.029126 -4.479778 -0.000000
-0.183474 -0.035149 -0.150261
-0.437642 -0.033170 -0.269304
-0.416588 -0.055245 -0.052085
0.007690 -0.048977 -0.067517
0.028773 -0.075610 -0.068758
-0.695870 -0.056611 -0.158472
0.016736 -0.074547 -0.019271
0.018342 -0.046219 -0.121006
-0.091605 -0.035149 0.150261
-0.098319 -0.035715 -0.000000
-0.111422 -0.033170 0.269304
0.003839 -0.048977 0.067517
0.008263 -0.062867 0.049999
-0.207080 -0.043709 0.109520
0.004670 -0.046219 0.121006
0.004121 -0.049766 0.000000
0.000000 -0.387589 0.378097
0.000000 0.298525 0.408574
-0.806302 -0.262103 0.327172
-0.003631 -0.047015 0.441926
-2.485481 0.165460 0.359140
-0.000000 -0.540072 0.169890
-0.000000 0.415969 0.183584
0.059584 -0.069113 0.175785
-1.416133 -0.060104 0.386789
0.104168 0.230554 0.161372
0.033793 -0.365218 0.147008
-0.001993 -0.073699 0.202035
1.207564 -1.195705 0.206742
3.902626 0.607873 0.221840
0.806302 -0.662347 0.327172
2.163970 -0.405897 0.258374
2.485481 0.469007 0.359140
-0.050610 -1.666111 0.092895
-0.163562 0.847018 0.099679
-0.061980 -0.180294 0.179743
1.408081 -0.121655 0.409236
-0.081936 -0.582014 0.112976
-0.033793 -0.922923 0.147008
-0.104168 0.653521 0.161372
1.955935 -1.713065 0.018783
3.020314 -0.190941 -0.157145
1.620684 -1.434815 0.127887
2.505878 -1.133058 -0.062336
3.928085 0.516184 0.031372
-0.091467 -2.416672 0.001550
-0.126584 -0.266059 -0.070610
-0.115073 -0.943627 0.040024
2.549935 -0.664237 0.108690
-0.164629 0.719258 0.014096
-0.080571 -2.026212 0.052125
-0.095366 -1.597288 -0.031997
1.453522 -3.249600 -0.065692
1.174882 -2.008976 0.087136
1.149255 -3.124083 -0.014851
1.701626 -2.421298 -0.032691
-0.063182 -4.559939 -0.038066
-0.089070 -3.146915 0.008981
1.434912 -2.238749 0.032798
-0.099977 -4.370739 -0.003529
-0.049240 -2.799334 0.039153
-0.086191 -3.405172 -0.021608
0.979400 -5.208369 -0.323612
0.437642 -9.318821 -0.269304
1.377353 -4.219698 -0.172267
-0.041047 -7.257412 -0.145408
0.019055 -7.569693 -0.063985
1.064809 -5.404530 -0.095044
-0.011606 -5.909049 -0.095862
-0.018342 -12.984970 -0.121006
1.882168 -2.009457 -0.286681
-0.064842 -3.396220 -0.081428
1.903023 -2.421283 -0.152301
-0.078883 -2.800004 -0.128814
0.318275 -2.969522 0.090129
0.132547 -5.208369 0.323612
0.289253 -1.978279 0.007224
0.143887 -2.009457 0.286681
0.199506 -4.020192 0.243053
0.001861 -4.136108 0.038089
-0.005555 -7.257412 0.145408
-0.019273 -3.008790 0.067473
0.208088 -2.164372 0.154267
-0.058341 -5.605994 0.097156
0.014804 -2.750270 0.002061
-0.006030 -2.800004 0.128814
0.111422 -9.318821 0.269304
0.444228 -3.004038 0.005225
-0.075328 -7.399380 0.079611
0.260510 -5.294722 0.217563
0.041889 -4.183510 0.008556
-0.004670 -12.984970 0.121006
0.362619 -2.008976 -0.087136
0.013452 -2.861765 -0.022954
0.337867 -2.058555 -0.055799
-0.015198 -2.799334 -0.039153
-0.000000 0.387589 -1.872728
-0.239446 0.205026 -1.023998
-0.090980 -0.078089 -1.098782
0.000000 -0.298525 -2.023679
-0.120343 0.262103 -1.620494
-0.161982 0.129561 -1.272744
-0.048375 -0.165460 -1.778830
-0.004114 0.052062 -2.214007
0.000000 0.000000 -0.841471
-0.343682 0.000000 -0.460112
-0.130585 -0.000000 -0.493714
0.000000 -0.000000 -0.909297
-0.109871 0.000091 -0.879021
-0.084067 0.093264 -1.950000
0.000095 0.001648 -0.999121
-0.212951 -0.005271 -0.576557
-0.172731 0.000000 -0.728135
-0.069434 -0.000000 -0.799280
-0.506190 0.164098 -0.097270
-0.141025 0.004036 0.778346
-0.362619 0.177386 -0.431590
-0.269537 0.138583 0.174767
-0.122953 -0.025699 -0.155386
-0.726547 0.000000 -0.043706
-0.202417 0.000000 0.349734
-0.304335 -0.005243 -0.208336
-0.221187 0.143637 -0.455711
-0.391379 -0.006423 0.076708
-0.520476 0.000000 -0.193926
-0.176478 -0.000000 -0.069820
-0.499582 0.075654 0.073842
-0.132547 0.028843 1.602859
-0.546904 0.115780 0.105677
-0.242741 0.077573 0.833480
-0.143887 0.020274 1.419942
-0.759865 -0.000019 0.034526
-0.190248 0.000000 0.720211
-0.418967 -0.004665 0.314282
-0.272081 0.110332 0.696565
-0.206525 0.000000 0.638021
-0.808663 -0.001200 0.046044
-0.393401 -0.002066 0.377197
-0.939123 0.164098 0.097270
-1.102508 0.056015 -0.466477
-0.694961 0.160064 -0.000000
-1.059183 0.098607 -0.118849
-0.754328 0.073064 -0.277678
-1.347946 0.000000 0.043706
-1.603057 0.005652 -0.210409
-1.104840 0.001256 -0.024502
-0.756854 0.113066 -0.054319
-1.526207 0.001290 -0.053502
-0.997495 0.000000 -0.000000
-1.113989 0.002424 -0.124326
-1.207564 0.205026 1.023998
-1.839683 0.028802 -0.053763
-1.174882 0.177386 0.431590
-1.603818 0.096357 0.554604
-1.458609 0.050574 -0.334779
-1.733246 0.000000 0.460112
-2.630551 0.011663 -0.024989
-1.959991 0.011183 0.044920
-1.374168 0.096284 0.094558
-2.279943 0.013694 0.252182
-1.686336 0.000000 0.193926
-2.098614 0.012324 -0.149798
-3.902626 -0.078089 1.098782
-3.020314 0.004036 -0.778346
-2.174178 -0.009469 1.266491
-3.928085 -0.025699 0.155386
-2.404495 -0.027266 -0.389833
-5.601533 -0.000000 0.493714
-4.335129 0.000000 -0.349734
-3.620117 0.003834 0.194689
-2.529083 -0.030496 0.446892
-5.638075 -0.000000 0.069820
-3.106959 0.005826 0.564576
-3.449142 0.002406 -0.183623
-0.979400 0.028843 -1.602859
-1.882168 0.020274 -1.419942
-1.126474 0.021756 -1.022552
-1.405756 0.000000 -0.720211
-2.481048 0.005960 -0.391855
-1.723012 -0.001068 -0.861502
-1.643719 0.006895 -0.463610
-2.701521 0.000000 -0.638021
0.090980 -0.607873 -1.098782
0.120538 0.322750 -1.509315
0.048375 -0.469007 -1.778830
0.112929 -0.118952 -1.369716
0.071518 0.394073 -1.877055
0.130585 -0.000000 -0.493714
0.188844 0.004025 -0.682394
0.092200 0.003596 -0.897329
0.059320 -0.031395 -1.991797
0.158399 0.006535 -0.618796
0.069434 -0.000000 -0.799280
0.121311 0.001929 -0.848351
0.141025 0.190941 0.778346
0.202729 1.150076 -0.454954
0.122953 -0.516184 -0.155386
0.174565 0.834010 0.127560
0.162502 0.658321 -1.008224
0.202417 0.000000 0.349734
0.317835 0.005342 -0.210870
0.218160 0.006421 -0.279243
0.134574 0.180813 -0.628103
0.265922 0.007161 0.049208
0.176478 -0.000000 -0.069820
0.256867 0.004083 -0.456286
0.239446 1.195705 -1.023998
0.215845 1.191448 -0.810204
0.120343 0.662347 -1.620494
0.343682 0.000000 -0.460112
0.234677 0.003821 -0.642872
0.147383 0.669840 -1.423894