# vtk DataFile Version 2.0
Poisson7.vtk
ASCII
DATASET UNSTRUCTURED_GRID

POINTS 140 float
-0.057647 0.638132 -1.212549
0.129825 -1.693645 0.362828
-1.251334 0.845653 -1.490872
-0.259481 -0.905920 5.997819
1.287800 -0.937472 7.366733
5.238590 7.733299 5.072202
5.934282 5.060409 5.560867
7.301482 4.553496 6.126257
3.109954 4.698006 1.692926
4.013865 1.987345 3.574084
1.097697 2.540471 1.297374
2.506901 0.776500 1.830092
1.305127 1.776489 1.078567
1.455771 1.800512 1.384487
1.448376 1.242284 2.341157
1.224172 1.869854 0.935915
2.653240 0.680197 2.058845
0.440664 2.679245 0.108533
2.009400 -0.104169 2.464248
-0.505786 1.785748 -0.702880
2.197201 -1.120802 1.690269
-1.115047 2.143114 -1.417536
1.905926 -1.197956 2.061022
-1.749442 1.415317 -1.716736
0.927588 -2.909430 -0.631371
-2.897203 -2.159580 -4.348315
-4.490076 -4.988789 -6.148688
-6.644111 -6.859224 -6.386164
-4.327981 -6.309273 0.496804
-3.086619 0.102265 -3.738475
0.273545 -3.326577 -0.002937
-3.711526 3.339148 -1.593739
3.561972 -0.404214 1.885477
-1.327490 0.037890 -3.038764
-0.836662 -3.056323 -1.690413
-3.560490 -1.572344 -3.127812
-2.270254 -3.512829 -2.119813
-2.959180 -2.436942 -2.828815
-2.082268 -3.185144 -3.070401
-3.729977 -3.874275 -3.440294
-2.812361 -2.348892 -2.555022
-2.021517 -2.717947 -1.453875
-1.717818 -0.825458 -0.891668
0.432790 -0.402782 0.903242
-2.106229 0.250807 -1.384071
1.222554 -2.051079 -0.056462
-3.262652 -0.455243 -2.743327
0.399660 -3.016778 0.157336
-3.204486 0.697357 -2.987845
0.688092 -3.101403 0.947480
-2.107225 7.357482 0.467189
1.233564 6.882862 6.569379
6.791630 7.873507 5.749319
7.604361 4.133025 6.939903
2.971623 5.424483 1.854973
5.050978 1.110779 3.919719
0.519463 3.695717 -0.096330
2.872918 -0.753958 -0.913352
-1.590939 -1.363751 -1.211057
-1.973170 -1.618586 -2.095866
-0.629181 -1.622286 -0.525398
-1.975784 0.052179 -1.391600
0.084081 -1.911767 0.405286
1.361971 -0.110386 1.495723
0.875635 1.064673 1.082586
0.556744 1.176984 0.083743
1.204177 -0.409398 1.220850
-0.848280 1.194431 -1.304002
0.948589 -1.624593 0.759713
-1.865368 0.464832 -2.191083
-0.218259 -2.728329 -1.404685
-3.195073 -3.014360 -3.506805
-5.080664 -4.173976 -7.912320
-4.477959 -9.478621 -5.790137
-10.085210 -5.148629 -7.597216
-3.982390 -2.521579 -0.696346
-2.769684 -0.309794 -2.166390
0.472872 -2.505959 0.254294
1.691872 2.482942 2.830923
4.539303 1.416090 3.384834
1.155164 -0.861512 0.139166
-2.025956 0.374628 -1.753166
0.189322 -2.155966 0.058557
-1.308292 0.401878 -1.438914
0.405696 -0.461394 0.974138
-1.471786 -0.262130 -0.401267
-1.912796 -0.245499 0.684226
0.293052 0.751807 -0.019096
1.484812 0.033771 2.161554
0.126485 2.917502 1.603130
2.568022 2.197537 1.106046
1.473473 0.699694 2.958677
-0.444926 -2.086692 -1.946693
-2.672200 
CELLS 114 570
4 2 1 0 3
4 6 5 4 7
4 9 8 5 6
4 12 11 10 13
4 15 14 11 12
4 17 16 14 15
4 19 18 16 17
4 21 20 18 19
4 23 22 20 21
4 25 24 22 23
4 27 26 24 25
4 29 28 26 27
4 31 30 28 29
4 33 32 30 31
4 35 34 32 33
4 37 36 34 35
4 39 38 36 37
4 41 40 38 39
4 43 42 40 41
4 45 44 42 43
4 47 46 44 45
4 49 48 46 47
4 51 50 48 49
4 53 52 50 51
4 55 54 52 53
4 57 56 54 55
4 59 58 56 57
4 61 60 58 59
4 63 62 60 61
4 65 64 62 63
4 67 66 64 65
4 69 68 66 67
4 71 70 68 69
4 73 72 70 71
4 75 74 72 73
4 77 76 74 75
4 79 78 76 77
4 81 80 78 79
4 83 82 80 81
4 85 84 82 83
4 13 10 84 85
4 87 86 8 9
4 89 88 86 87
4 91 90 86 88
4 93 92 90 91
4 94 15 12 95
4 96 17 15 94
4 96 21 19 17
4 97 23 21 96
4 98 25 23 97
4 99 27 25 98
4 100 29 27 99
4 101 31 29 100
4 101 35 33 31
4 102 37 35 101
4 103 39 37 102
4 104 41 39 103
4 105 43 41 104
4 105 47 45 43
4 106 49 47 105
4 107 51 49 106
4 108 53 51 107
4 109 61 59 110
4 111 63 61 109
4 112 65 63 111
4 113 67 65 112
4 114 69 67 113
4 115 77 75 116
4 117 79 77 115
4 118 81 79 117
4 95 12 13 119
4 121 120 92 93
4 123 122 120 121
4 125 124 120 122
4 127 126 124 125
4 128 96 94 129
4 130 97 96 128
4 131 98 97 130
4 132 99 98 131
4 133 100 99 132
4 127 101 100 133
4 125 102 101 127
4 130 135 134 131
4 128 136 135 130
4 117 3 137 118
4 115 2 3 117
4 112 6 7 113
4 111 9 6 112
4 109 87 9 111
4 110 89 87 109
4 107 91 88 108
4 106 93 91 107
4 105 121 93 106
4 104 123 121 105
4 102 125 122 103
4 123 104 103 122
4 57 138 110 59
4 55 139 138 57
4 53 108 139 55
4 89 110 138 139
4 89 139 108 88
4 116 71 69 114
4 75 73 71 116
4 4 1 2 7
4 137 3 0 129
4 128 129 0 136
4 119 118 137 95
4 94 95 137 129
4 119 83 81 118
4 13 85 83 119
4 126 132 131 134
4 127 133 132 126
4 114 113 7 2
4 116 114 2 115

CELL_TYPES 114
9
9
9
9
9
9
9
9
9
9
9
9
9
9
9
9
9
9
9
9
9
9
9
9
9
9
9
9
9
9
9
9
9
9
9
9
9
9
9
9
9
9
9
9
9
9
9
9
9
9
9
9
9
9
9
9
9
9
9
9
9
9
9
9
9
9
9
9
9
9
9
9
9
9
9
9
9
9
9
9
9
9
9
9
9
9
9
9
9
9
9
9
9
9
9
9
9
9
9
9
9
9
9
9
9
9
9
9
9
9
9
9
9
9

POINT_DATA 140
VECTORS displacement float
0.164874 -0.336796 -0.589059
-0.652007 -0.457166 -0.507729
-0.533671 -0.438991 -0.589904
-0.693365 0.094080 5.997819
2.674361 -0.798281 8.741440
4.906684 8.634268 5.506086
7.231104 5.633327 5.560867
4.301482 4.059712 3.167173
2.829071 2.213526 1.831857
1.420824 1.013246 0.736633
0.354275 0.191165 -0.130469
-0.131520 -0.424438 -0.382310
-0.537511 -0.590933 -0.511752
-0.670940 -0.406660 -0.647358
-0.279005 -0.558025 -0.170342
-0.416672 -0.105189 -0.488393
-0.094080 -0.524889 -0.136808
-0.571167 -0.228956 -0.627924
-0.363937 -0.687023 -0.525505
-0.753524 -0.682363 -0.841145
-0.792552 -0.873063 -0.820723
-0.813948 -0.765087 -0.681079
-0.681224 -0.547903 -0.686298
-0.544355 -0.936301 -0.795769
-1.583911 -1.268586 -2.729649
-1.606086 -4.366751 -2.316470
-6.298939 -3.332342 -7.991326
-4.276689 -8.342142 -4.407517
-5.755823 -3.670852 -0.638579
-0.831966 -0.871833 -0.901023
-0.606828 -0.814252 -0.496720
-0.752442 2.813726 0.865783
3.561972 2.595786 1.804438
1.120825 0.531674 -0.079680
-0.460825 -0.649667 -0.716314
-0.723038 -0.756677 -0.805532
-0.842412 -0.874408 -0.896015
-0.761699 -0.594304 -0.461394
-0.511823 -1.163218 -0.863229
-1.698132 -2.048435 -1.712418
-0.300862 -0.708047 -0.509279
-0.659342 0.029373 -0.248789
0.507729 0.126761 2.016533
1.169247 1.944532 1.415705
0.883525 0.498545 1.017696
1.276237 0.938675 -0.304200
-0.849176 -0.854627 