# vtk DataFile Version 2.0
3dElas649.vtk
ASCII
DATASET UNSTRUCTURED_GRID

POINTS 216 float
-0.500000 -0.262767 -0.654962
-0.222040 -0.432890 -0.630053
-0.870362 -0.289080 -0.632248
-1.000000 0.202386 -0.659393
-0.500000 0.294410 -1.011097
-0.242764 -0.138157 -1.006068
-0.878236 -0.401336 -1.006511
-1.000000 -0.226757 -1.011991
0.231233 -0.586779 -0.602855
-0.658577 -0.645524 -0.577156
0.187422 -0.350881 -1.000576
-0.670782 -0.639722 -0.995388
0.012332 -0.785619 -0.368349
-0.398993 -0.885580 -0.552958
0.333433 -0.681770 -0.999623
-0.410465 -0.844116 -0.990502
0.870165 -0.586779 -0.597145
0.270470 -0.719303 0.019993
0.788884 -0.350881 -0.999424
1.034418 -0.597912 -1.002814
1.324730 -0.432890 -0.569947
0.383265 -0.556966 0.265975
1.220215 -0.138157 -0.993932
1.724282 -0.471071 -1.000318
3.913678 -0.289080 -0.567752
3.067666 -0.645524 -0.622844
3.575905 -0.401336 -0.993489
2.806258 -0.639722 -1.004612
1.246349 -0.885580 -0.647042
1.161582 -0.844116 -1.009498
-1.009023 0.754129 -0.632248
-0.428231 0.511966 -0.240097
-1.001149 -0.119715 -1.006511
-0.753854 0.551129 -1.008986
-0.873512 0.513339 -0.577156
-0.085948 0.922590 -0.023164
-0.861307 0.787824 -0.995388
-0.707079 1.362807 -1.002733
-0.586977 -0.516739 -0.630053
-0.566253 1.202140 -1.006068
-0.243455 -7.791031 -0.578157
0.033832 -7.791031 -0.621843
-0.561148 -1.453851 -0.597145
-0.540250 -1.453851 -0.602855
-0.235527 10.817434 -0.995590
0.049712 10.817434 -1.004410
-0.479867 2.637244 -0.999424
-0.496439 2.637244 -1.000576
0.313464 -1.008637 -0.621843
0.297584 -0.958109 -1.004410
-0.103841 -1.008637 -0.578157
-0.111770 -0.958109 -0.995590
0.500000 -0.262767 -0.545038
1.000000 0.202386 -0.540607
0.500000 0.294410 -0.988903
1.000000 -0.226757 -0.988009
-0.515713 -0.516739 -0.569947
-2.034293 0.754129 -0.567752
-0.411198 1.202140 -0.993932
-1.696520 -0.119715 -0.993489
0.118235 0.823968 -0.687046
-1.535577 0.513339 -0.622844
-0.811852 1.827434 -0.999850
-1.274169 0.787824 -1.004612
-0.019776 1.197012 0.403863
-0.595347 3.102630 -1.002660
-0.246349 -2.665003 -0.647042
-0.161582 4.822260 -1.009498
0.041242 1.262920 0.803130
-0.601007 -2.665003 -0.552958
-0.608717 2.846324 -0.997952
-0.589535 4.822260 -0.990502
-0.500000 -0.279064 -0.472230
-0.576909 -0.441511 -0.348854
-1.005198 -0.285796 -0.359725
-1.000000 0.214938 -0.494173
-0.518966 -0.593679 -0.214140
-0.867583 -0.645693 -0.086855
0.128763 -0.640746 -0.192111
-0.595434 -0.886792 0.033000
-0.521660 -0.593679 -0.185860
0.387725 -0.666687 0.556830
-0.464938 -0.441511 -0.051146
0.553225 -0.623182 0.615036
-1.870198 -0.285796 -0.040275
-1.408581 -0.645693 -0.313145
-0.205168 -0.886792 -0.433000
-0.874187 0.779689 -0.359725
-0.389010 0.300752 0.585334
-0.664506 0.505310 -0.086855
-0.019189 0.734690 -0.207746
-0.232108 -0.567015 -0.348854
-0.107693 -8.335318 -0.091812
0.305750 -8.335318 -0.308188
0.830677 -1.573513 -0.185860
0.209949 -1.573513 -0.214140
0.041547 -1.010115 -0.308188
-0.239603 -1.010115 -0.091812
0.500000 -0.279064 0.072230
1.000000 0.214938 0.094173
1.273955 -0.567015 -0.051146
3.749583 0.779689 -0.040275
-0.091414 1.105255 -1.822162
2.940670 0.505310 -0.313145
-0.120871 1.782238 -2.084541
1.205168 -2.884001 -0.433000
0.187398 1.421002 -1.762143
-0.404566 -2.884001 0.033000
-0.500000 0.279064 -1.148364
-0.576909 -0.146274 -0.537278
-1.005198 -0.398244 -0.591123
-1.000000 -0.214938 -1.257049
-0.518966 -0.357378 0.129966
-0.867583 -0.639882 0.760409
0.466190 -0.637002 -0.624273
-0.595434 -0.845258 1.354059
-0.521660 -0.357378 0.270034
0.618543 -0.497707 0.980193
-0.464938 -0.146274 0.937278
0.455986 -0.526889 -0.057506
-1.870198 -0.398244 0.991123
-1.408581 -0.639882 -0.360409
-0.205168 -0.845258 -0.954059
-0.874187 -0.095648 -0.591123
-1.042021 -0.205331 4.041914
-0.664506 0.780265 0.760409
-2.014045 -1.193430 1.888609
-0.232108 1.154800 -0.537278
-0.107693 10.304933 0.735859
0.305750 10.304933 -0.335859
0.830677 2.524570 0.270034
0.209949 2.524570 0.129966
0.041547 -0.959501 -0.335859
-0.239603 -0.959501 0.735859
0.500000 0.279064 1.548364
1.000000 -0.214938 1.657049
1.273955 1.154800 0.937278
3.749583 -0.095648 0.991123
0.811773 0.216892 0.491612
2.940670 0.780265 -0.360409
0.914572 -0.333759 0.063604
1.205168 4.616051 -0.954059
-1.555807 -0.827207 -1.728889
-0.404566 4.616051 1.354059
-0.500000 0.262767 -6.078492
-0.222040 -0.154895 -3.051764
-0.870362 -0.394961 -3.318457
-1.000000 -0.202386 -6.616809
0.231233 -0.364278 0.253118
-0.658577 -0.640051 3.375726
4.072793 -0.146897 -1.694416
-0.398993 -0.846471 6.316091
0.870165 -0.364278 0.946882
2.527348 -2.909659 4.976664
1.324730 -0.154895 4.251764
0.701658 -3.797940 -0.082827
3.913678 -0.394961 4.518457
3.067666 -0.640051 -2.175726
1.246349 -0.846471 -5.116091
-1.009023 -0.070089 -3.318457
-1.900356 -4.712076 13.726097
-0.873512 0.772236 3.375726
-2.295800 -6.364838 4.816634
-0.586977 1.104524 -3.051764
-0.243455 9.760647 3.254127
0.033832 9.760647 -2.054127
-0.561148 2.404908 0.946882
-0.540250 2.404908 0.253118
0.313464 -0.960979 -2.054127
-0.103841 -0.960979 3.254127
0.500000 0.262767 7.278492
1.000000 -0.202386 7.816809
-0.515713 1.104524 4.251764
-2.034293 -0.070089 4.518457
1.080227 3.872864 1.852980
-1.535577 0.772236 -2.175726
1.222308 3.352419 7.010445
-0.246349 4.397053 -5.116091
-1.138349 -4.109722 -1.689984
-0.601007 4.397053 6.316091
-0.500000 -0.294410 -32.078787
-0.242764 -0.449628 -17.087306
-0.878236 -0.282705 -18.408244
-1.000000 0.226757 -34.745089
0.187422 -0.600176 -0.718116
-0.670782 -0.645853 14.748259
0.332297 -0.799491 2.160123
-0.410465 -0.887934 29.311983
0.788884 -0.600176 2.718116
1.034101 -0.724858 -7.381753
1.220215 -0.449628 19.087306
1.720660 -0.595273 0.118487
3.575905 -0.282705 20.408244
2.806258 -0.645853 -12.748259
1.161582 -0.887934 -27.311983
-1.001149 0.803755 -18.408244
-0.753612 -0.022018 -25.932996
-0.861307 0.497751 14.748259
-0.707076 -0.468685 -7.253639
-0.566253 -0.614355 -17.087306
-0.235527 -8.847818 14.145977
0.049712 -8.847818 -12.145977
-0.479867 -1.686187 2.718116
-0.496439 -1.686187 -0.718116
0.297584 -1.011506 -12.145977
-0.111770 -1.011506 14.145977
0.500000 -0.294410 34.078787
1.000000 0.226757 36.745089
-0.411198 -0.614355 19.087306
-1.696520 0.803755 20.408244
-0.812561 -0.786468 1.470464
-1.274169 0.497751 -12.748259
-0.595552 -1.860945 -6.926265
-0.161582 -3.090209 -27.311983
-0.608793 -1.652508 7.077896
-0.589535 -3.090209 29.311983

CELLS 110 990
8 0 1 2 3 4 5 6 7
8 1 8 9 2 5 10 11 6
8 9 8 12 13 11 10 14 15
8 8 16 17 12 10 18 19 14
8 16 20 21 17 18 22 23 19
8 20 24 25 21 22 26 27 23
8 25 28 17 21 27 29 19 23
8 3 30 31 0 7 32 33 4
8 30 34 35 31 32 36 37 33
8 0 31 35 38 4 33 37 39
8 40 41 42 43 44 45 46 47
8 12 17 28 48 14 19 29 49
8 48 50 13 12 49 51 15 14
8 24 20 52 53 26 22 54 55
8 52 56 57 53 54 58 59 55
8 57 56 60 61 59 58 62 63
8 56 42 64 60 58 46 65 62
8 41 66 64 42 45 67 65 46
8 66 61 60 64 67 63 62 65
8 68 35 34 69 70 37 36 71
8 68 69 40 43 70 71 44 47
8 68 43 38 35 70 47 39 37
8 72 73 74 75 0 1 2 3
8 73 76 77 74 1 8 9 2
8 77 76 78 79 9 8 12 13
8 76 80 81 78 8 16 17 12
8 80 82 83 81 16 20 21 17
8 82 84 85 83 20 24 25 21
8 85 86 81 83 25 28 17 21
8 75 87 88 72 3 30 31 0
8 87 89 90 88 30 34 35 31
8 72 88 90 91 0 31 35 38
8 92 93 94 95 40 41 42 43
8 78 81 86 96 12 17 28 48
8 96 97 79 78 48 50 13 12
8 84 82 98 99 24 20 52 53
8 98 100 101 99 52 56 57 53
8 101 100 102 103 57 56 60 61
8 100 94 104 102 56 42 64 60
8 93 105 104 94 41 66 64 42
8 105 103 102 104 66 61 60 64
8 106 90 89 107 68 35 34 69
8 106 107 92 95 68 69 40 43
8 106 95 91 90 68 43 38 35
8 108 109 110 111 72 73 74 75
8 109 112 113 110 73 76 77 74
8 113 112 114 115 77 76 78 79
8 112 116 117 114 76 80 81 78
8 116 118 119 117 80 82 83 81
8 118 120 121 119 82 84 85 83
8 121 122 117 119 85 86 81 83
8 111 123 124 108 75 87 88 72
8 123 125 126 124 87 89 90 88
8 108 124 126 127 72 88 90 91
8 128 129 130 131 92 93 94 95
8 114 117 122 132 78 81 86 96
8 132 133 115 114 96 97 79 78
8 120 118 134 135 84 82 98 99
8 134 136 137 135 98 100 101 99
8 137 136 138 139 101 100 102 103
8 136 130 140 138 100 94 104 102
8 129 141 140 130 93 105 104 94
8 141 139 138 140 105 103 102 104
8 142 126 125 143 106 90 89 107
8 142 143 128 131 106 107 92 95
8 142 131 127 126 106 95 91 90
8 144 145 146 147 108 109 110 111
8 145 148 149 146 109 112 113 110
8 149 148 150 151 113 112 114 115
8 148 152 153 150 112 116 117 114
8 152 154 155 153 116 118 119 117
8 154 156 157 155 118 120 121 119
8 157 158 153 155 121 122 117 119
8 147 159 160 144 111 123 124 108
8 159 161 162 160 123 125 126 124
8 144 160 162 163 108 124 126 127
8 164 165 166 167 128 129 130 131
8 150 153 158 168 114 117 122 132
8 168 169 151 150 132 133 115 114
8 156 154 170 171 120 118 134 135
8 170 172 173 171 134 136 137 135
8 173 172 174 175 137 136 138 139
8 172 166 176 174 136 130 140 138
8 165 177 176 166 129 141 140 130
8 177 175 174 176 141 139 138 140
8 178 162 161 179 142 126 125 143
8 178 179 164 167 142 143 128 131
8 178 167 163 162 142 131 127 126
8 180 181 182 183 144 145 146 147
8 181 184 185 182 145 148 149 146
8 185 184 186 187 149 148 150 151
8 184 188 189 186 148 152 153 150
8 188 190 191 189 152 154 155 153
8 190 192 193 191 154 156 157 155
8 193 194 189 191 157 158 153 155
8 183 195 196 180 147 159 160 144
8 195 197 198 196 159 161 162 160
8 180 196 198 199 144 160 162 163
8 200 201 202 203 164 165 166 167
8 186 189 194 204 150 153 158 168
8 204 205 187 186 168 169 151 150
8 192 190 206 207 156 154 170 171
8 206 208 209 207 170 172 173 171
8 209 208 210 211 173 172 174 175
8 208 202 212 210 172 166 176 174
8 201 213 212 202 165 177 176 166
8 213 211 210 212 177 175 174 176
8 214 198 197 215 178 162 161 179
8 214 215 200 203 178 179 164 167
8 214 203 199 198 178 167 163 162

CELL_TYPES 110
12
12
12
12
12
12
12
12
12
12
12
12
12
12
12
12
12
12
12
12
12
12
12
12
12
12
12
12
12
12
12
12
12
12
12
12
12
12
12
12
12
12
12
12
12
12
12
12
12
12
12
12
12
12
12
12
12
12
12
12
12
12
12
12
12
12
12
12
12
12
12
12
12
12
12
12
12
12
12
12
12
12
12
12
12
12
12
12
12
12
12
12
12
12
12
12
12
12
12
12
12
12
12
12
12
12
12
12
12
12

POINT_DATA 216
VECTORS displacement float
-0.000000 -0.262767 -0.054962
0.182469 -0.138998 -0.030053
0.069331 0.052940 -0.032248
0.000000 0.202386 -0.059393
-0.000000 0.294410 -0.011097
0.161745 0.155736 -0.006068
0.061456 -0.059316 -0.006511
0.000000 -0.226757 -0.011991
0.385741 -0.111250 -0.002855
0.107468 -0.002736 0.022844
0.341930 0.124647 -0.000576
0.095262 0.003066 0.004612
0.035904 -0.044867 0.231651
0.101007 -0.019554 0.047042
0.357005 0.058982 0.000377
0.089535 0.021909 0.009498
0.715656 -0.111250 0.002855
-0.009494 -0.057911 0.619993
0.634375 0.124647 0.000576
0.754454 0.063479 -0.002814
0.920221 -0.138998 0.030053
-0.101256 -0.023620 0.865975
0.815706 0.155736 0.006068
1.239760 0.062275 -0.000318
2.973986 0.052940 0.032248
2.301622 -0.002736 -0.022844
2.636213 -0.059316 0.006511
2.040213 0.003066 -0.004612
0.746349 -0.019554 -0.047042
0.661582 0.021909 -0.009498
-0.069331 0.412109 -0.032248
0.236968 0.247591 0.359903
-0.061456 -0.461735 -0.006511
-0.088655 0.286753 -0.008986
-0.107468 -0.129449 0.022844
0.470736 0.476700 0.576836
-0.095262 0.145037 0.004612
-0.150395 0.916916 -0.002733
-0.182469 -0.810631 -0.030053
-0.161745 0.908247 -0.006068
-0.069807 -8.775839 0.021843
-0.139816 -8.775839 -0.021843
-0.715656 -1.929380 0.002855
-0.385741 -1.929380 -0.002855
-0.061879 9.832626 0.004410
-0.123936 9.832626 -0.004410
-0.634375 2.161716 0.000576
-0.341930 2.161716 -0.000576
0.139816 -0.023829 -0.021843
0.123936 0.026699 -0.004410
0.069807 -0.023829 0.021843
0.061879 0.026699 0.004410
-0.000000 -0.262767 0.054962
-0.000000 0.202386 0.059393
-0.000000 0.294410 0.011097
-0.000000 -0.226757 0.011991
-0.920221 -0.810631 0.030053
-2.973986 0.412109 0.032248
-0.815706 0.908247 0.006068
-2.636213 -0.461735 0.006511
-0.402049 0.304772 -0.087046
-2.301622 -0.129449 -0.022844
-1.332136 1.308238 0.000150
-2.040213 0.145037 -0.004612
-0.411373 0.576762 1.003863
-0.986945 2.482380 -0.002660
-0.746349 -3.531028 -0.047042
-0.661582 3.956235 -0.009498
0.444973 0.667105 1.403130
-0.101007 -3.531028 0.047042
-0.204986 2.250509 0.002048
-0.089535 3.956235 0.009498
0.000000 -0.279064 -0.272230
-0.172401 -0.147618 -0.148854
-0.065505 0.056224 -0.159725
-0.000000 0.214938 -0.294173
-0.364457 -0.118150 -0.014140
-0.101538 -0.002906 0.113145
0.152335 0.100006 0.007889
-0.095434 -0.020767 0.233000
-0.676169 -0.118150 0.014140
0.107761 -0.005296 0.756830
-0.869446 -0.147618 0.148854
0.068704 -0.089836 0.815036
-2.809891 0.056224 0.159725
-2.174626 -0.002906 -0.113145
-0.705168 -0.020767 -0.233000
0.065505 0.437668 -0.159725
0.276189 0.036376 0.785334
0.101538 -0.137477 0.113145
0.537495 0.288799 -0.007746
0.172401 -0.860907 -0.148854
0.065955 -9.320125 0.108188
0.132101 -9.320125 -0.108188
0.676169 -2.049042 0.014140
0.364457 -2.049042 -0.014140
-0.132101 -0.025307 -0.108188
-0.065955 -0.025307 0.108188
0.000000 -0.279064 0.272230
0.000000 0.214938 0.294173
0.869446 -0.860907 0.148854
2.809891 0.437668 0.159725
-0.611698 0.586059 -1.622162
2.174626 -0.137477 -0.113145
-0.512468 1.161988 -1.884541
0.705168 -3.750026 -0.233000
0.591129 0.825187 -1.562143
0.095434 -3.750026 0.233000
-0.000000 0.279064 -1.348364
-0.172401 0.147618 -0.737278
-0.065505 -0.056224 -0.791123
0.000000 -0.214938 -1.457049
-0.364457 0.118150 -0.070034
-0.101538 0.002906 0.560409
0.489762 0.103750 -0.824273
-0.095434 0.020767 1.154059
-0.676169 0.118150 0.070034
0.338579 0.163684 0.780193
-0.869446 0.147618 0.737278
-0.028536 0.006457 -0.257506
-2.809891 -0.056224 0.791123
-2.174626 0.002906 -0.560409
-0.705168 0.020767 -1.154059
0.065505 -0.437668 -0.791123
-0.376822 -0.469707 3.841914
0.101538 0.137477 0.560409
-1.457361 -1.639321 1.688609
0.172401 0.860907 -0.737278
0.065955 9.320125 0.535859
0.132101 9.320125 -0.535859
0.676169 2.049042 0.070034
0.364457 2.049042 -0.070034
-0.132101 0.025307 -0.535859
-0.065955 0.025307 0.535859
0.000000 0.279064 1.348364
0.000000 -0.214938 1.457049
0.869446 0.860907 0.737278
2.809891 -0.437668 0.791123
0.291489 -0.302304 0.291612
2.174626 0.137477 -0.560409
0.522975 -0.954009 -0.136396
0.705168 3.750026 -1.154059
-1.152076 -1.423022 -1.928889
0.095434 3.750026 1.154059
0.000000 0.262767 -6.678492
0.182469 0.138998 -3.651764
0.069331 -0.052940 -3.918457
-0.000000 -0.202386 -7.216809
0.385741 0.111250 -0.346882
0.107468 0.002736 2.775726
4.096365 0.593855 -2.294416
0.101007 0.019554 5.716091
0.715656 0.111250 0.346882
2.247384 -2.248267 4.376664
0.920221 0.138998 3.651764
0.217137 -3.264594 -0.682827
2.973986 -0.052940 3.918457
2.301622 0.002736 -2.775726
0.746349 0.019554 -5.716091
-0.069331 -0.412109 -3.918457
-1.235157 -4.976452 13.126097
-0.107468 0.129449 2.775726
-1.739116 -6.810729 4.216634
-0.182469 0.810631 -3.651764
-0.069807 8.775839 2.654127
-0.139816 8.775839 -2.654127
-0.715656 1.929380 0.346882
-0.385741 1.929380 -0.346882
0.139816 0.023829 -2.654127
0.069807 0.023829 2.654127
-0.000000 0.262767 6.678492
-0.000000 -0.202386 7.216809
-0.920221 0.810631 3.651764
-2.973986 -0.412109 3.918457
0.559944 3.353668 1.252980
-2.301622 0.129449 -2.775726
0.830711 2.732169 6.410445
-0.746349 3.531028 -5.716091
-0.734618 -4.705536 -2.289984
-0.101007 3.531028 5.716091
0.000000 -0.294410 -33.078787
0.161745 -0.155736 -18.087306
0.061456 0.059316 -19.408244
-0.000000 0.226757 -35.745089
0.341930 -0.124647 -1.718116
0.095262 -0.003066 13.748259
0.356670 -0.059029 1.160123
0.089535 -0.021909 28.311983
0.634375 -0.124647 1.718116
0.754275 -0.063496 -8.381753
0.815706 -0.155736 18.087306
1.237200 -0.062592 -0.881513
2.636213 0.059316 19.408244
2.040213 -0.003066 -13.748259
0.661582 -0.021909 -28.311983
-0.061456 0.461735 -19.408244
-0.088153 -0.284655 -26.932996
-0.095262 -0.145037 13.748259
-0.150240 -0.913560 -8.253639
-0.161745 -0.908247 -18.087306
-0.061879 -9.832626 13.145977
-0.123936 -9.832626 -13.145977
-0.634375 -2.161716 1.718116
-0.341930 -2.161716 -1.718116
0.123936 -0.026699 -13.145977
0.061879 -0.026699 13.145977
-0.000000 -0.294410 33.078787
-0.000000 0.226757 35.745089
-0.815706 -0.908247 18.087306
-2.636213 0.461735 19.408244
-1.333278 -1.305444 0.470464
-2.040213 -0.145037 -13.748259
-0.987294 -2.481122 -7.926265
-0.661582 -3.956235 -28.311983
-0.205011 -2.247984 6.077896
-0.089535 -3.956235 28.311983
